V -t * -v 1.0a5 -a 0
W -t * -x 1000 -y 1000
A -t * -n 1 -p 0 -o 0x7fffffff -c 30 -a 1
A -t * -h 1 -m 1073741823 -s 0
+ -t 0.036400876 -s 0 -d -1 -p message -e 32 -c 2 -a 0 -i 0 -k RTR 
- -t 0.036400876 -s 0 -d -1 -p message -e 32 -c 2 -a 0 -i 0 -k RTR
h -t 0.036400876 -s 0 -d -1 -p message -e 32 -c 2 -a 0 -i 0 -k RTR
r -t 0.037421112 -s 1 -d -1 -p message -e 32 -c 2 -a 0 -i 0 -k RTR
n -t 0.100000 -s 0 -x 50.000000 -y 50.000000 -U 0.000000 -V 0.000000 -T 0.000000
n -t 0.100000 -s 1 -x 100.000000 -y 100.000000 -U 0.000000 -V 0.000000 -T 0.000000
n -t 0.100000 -s 2 -x 600.000000 -y 0.000000 -U 0.000000 -V 25.000000 -T 24.000000
+ -t 0.182633994 -s 1 -d -1 -p message -e 32 -c 2 -a 0 -i 1 -k RTR 
- -t 0.182633994 -s 1 -d -1 -p message -e 32 -c 2 -a 0 -i 1 -k RTR
h -t 0.182633994 -s 1 -d -1 -p message -e 32 -c 2 -a 0 -i 1 -k RTR
r -t 0.183694230 -s 0 -d -1 -p message -e 32 -c 2 -a 0 -i 1 -k RTR
+ -t 0.882774710 -s 2 -d -1 -p message -e 32 -c 2 -a 0 -i 2 -k RTR 
- -t 0.882774710 -s 2 -d -1 -p message -e 32 -c 2 -a 0 -i 2 -k RTR
h -t 0.882774710 -s 2 -d -1 -p message -e 32 -c 2 -a 0 -i 2 -k RTR
+ -t 5.000000000 -s 0 -d -1 -p tcp -e 40 -c 2 -a 0 -i 3 -k AGT 
- -t 5.000000000 -s 0 -d -1 -p tcp -e 40 -c 2 -a 0 -i 3 -k AGT
h -t 5.000000000 -s 0 -d -1 -p tcp -e 40 -c 2 -a 0 -i 3 -k AGT
+ -t 5.000000000 -s 0 -d 1 -p tcp -e 60 -c 2 -a 0 -i 3 -k RTR 
- -t 5.000000000 -s 0 -d 1 -p tcp -e 60 -c 2 -a 0 -i 3 -k RTR
h -t 5.000000000 -s 0 -d 1 -p tcp -e 60 -c 2 -a 0 -i 3 -k RTR
+ -t 5.000000000 -s 1 -d -1 -p tcp -e 40 -c 2 -a 0 -i 4 -k AGT 
- -t 5.000000000 -s 1 -d -1 -p tcp -e 40 -c 2 -a 0 -i 4 -k AGT
h -t 5.000000000 -s 1 -d -1 -p tcp -e 40 -c 2 -a 0 -i 4 -k AGT
r -t 5.004812650 -s 1 -d 1 -p tcp -e 60 -c 2 -a 0 -i 3 -k AGT
+ -t 5.004812650 -s 1 -d -1 -p ack -e 40 -c 2 -a 0 -i 5 -k AGT 
- -t 5.004812650 -s 1 -d -1 -p ack -e 40 -c 2 -a 0 -i 5 -k AGT
h -t 5.004812650 -s 1 -d -1 -p ack -e 40 -c 2 -a 0 -i 5 -k AGT
+ -t 5.004812650 -s 1 -d 0 -p ack -e 60 -c 2 -a 0 -i 5 -k RTR 
- -t 5.004812650 -s 1 -d 0 -p ack -e 60 -c 2 -a 0 -i 5 -k RTR
h -t 5.004812650 -s 1 -d 0 -p ack -e 60 -c 2 -a 0 -i 5 -k RTR
r -t 5.006977357 -s 0 -d 0 -p ack -e 60 -c 2 -a 0 -i 5 -k AGT
+ -t 5.006977357 -s 0 -d -1 -p tcp -e 1040 -c 2 -a 0 -i 6 -k AGT 
- -t 5.006977357 -s 0 -d -1 -p tcp -e 1040 -c 2 -a 0 -i 6 -k AGT
h -t 5.006977357 -s 0 -d -1 -p tcp -e 1040 -c 2 -a 0 -i 6 -k AGT
+ -t 5.006977357 -s 0 -d 1 -p tcp -e 1060 -c 2 -a 0 -i 6 -k RTR 
- -t 5.006977357 -s 0 -d 1 -p tcp -e 1060 -c 2 -a 0 -i 6 -k RTR
h -t 5.006977357 -s 0 -d 1 -p tcp -e 1060 -c 2 -a 0 -i 6 -k RTR
+ -t 5.006977357 -s 0 -d -1 -p tcp -e 1040 -c 2 -a 0 -i 7 -k AGT 
- -t 5.006977357 -s 0 -d -1 -p tcp -e 1040 -c 2 -a 0 -i 7 -k AGT
h -t 5.006977357 -s 0 -d -1 -p tcp -e 1040 -c 2 -a 0 -i 7 -k AGT
+ -t 5.006977357 -s 0 -d 1 -p tcp -e 1060 -c 2 -a 0 -i 7 -k RTR 
- -t 5.006977357 -s 0 -d 1 -p tcp -e 1060 -c 2 -a 0 -i 7 -k RTR
h -t 5.006977357 -s 0 -d 1 -p tcp -e 1060 -c 2 -a 0 -i 7 -k RTR
r -t 5.016982064 -s 1 -d 1 -p tcp -e 1060 -c 2 -a 0 -i 6 -k AGT
+ -t 5.016982064 -s 1 -d -1 -p ack -e 40 -c 2 -a 0 -i 8 -k AGT 
- -t 5.016982064 -s 1 -d -1 -p ack -e 40 -c 2 -a 0 -i 8 -k AGT
h -t 5.016982064 -s 1 -d -1 -p ack -e 40 -c 2 -a 0 -i 8 -k AGT
+ -t 5.016982064 -s 1 -d 0 -p ack -e 60 -c 2 -a 0 -i 8 -k RTR 
- -t 5.016982064 -s 1 -d 0 -p ack -e 60 -c 2 -a 0 -i 8 -k RTR
h -t 5.016982064 -s 1 -d 0 -p ack -e 60 -c 2 -a 0 -i 8 -k RTR
r -t 5.026987007 -s 1 -d 1 -p tcp -e 1060 -c 2 -a 0 -i 7 -k AGT
+ -t 5.026987007 -s 1 -d -1 -p ack -e 40 -c 2 -a 0 -i 9 -k AGT 
- -t 5.026987007 -s 1 -d -1 -p ack -e 40 -c 2 -a 0 -i 9 -k AGT
h -t 5.026987007 -s 1 -d -1 -p ack -e 40 -c 2 -a 0 -i 9 -k AGT
+ -t 5.026987007 -s 1 -d 0 -p ack -e 60 -c 2 -a 0 -i 9 -k RTR 
- -t 5.026987007 -s 1 -d 0 -p ack -e 60 -c 2 -a 0 -i 9 -k RTR
h -t 5.026987007 -s 1 -d 0 -p ack -e 60 -c 2 -a 0 -i 9 -k RTR
r -t 5.029151714 -s 0 -d 0 -p ack -e 60 -c 2 -a 0 -i 8 -k AGT
+ -t 5.029151714 -s 0 -d -1 -p tcp -e 1040 -c 2 -a 0 -i 10 -k AGT 
- -t 5.029151714 -s 0 -d -1 -p tcp -e 1040 -c 2 -a 0 -i 10 -k AGT
h -t 5.029151714 -s 0 -d -1 -p tcp -e 1040 -c 2 -a 0 -i 10 -k AGT
+ -t 5.029151714 -s 0 -d 1 -p tcp -e 1060 -c 2 -a 0 -i 10 -k RTR 
- -t 5.029151714 -s 0 -d 1 -p tcp -e 1060 -c 2 -a 0 -i 10 -k RTR
h -t 5.029151714 -s 0 -d 1 -p tcp -e 1060 -c 2 -a 0 -i 10 -k RTR
+ -t 5.029151714 -s 0 -d -1 -p tcp -e 1040 -c 2 -a 0 -i 11 -k AGT 
- -t 5.029151714 -s 0 -d -1 -p tcp -e 1040 -c 2 -a 0 -i 11 -k AGT
h -t 5.029151714 -s 0 -d -1 -p tcp -e 1040 -c 2 -a 0 -i 11 -k AGT
+ -t 5.029151714 -s 0 -d 1 -p tcp -e 1060 -c 2 -a 0 -i 11 -k RTR 
- -t 5.029151714 -s 0 -d 1 -p tcp -e 1060 -c 2 -a 0 -i 11 -k RTR
h -t 5.029151714 -s 0 -d 1 -p tcp -e 1060 -c 2 -a 0 -i 11 -k RTR
r -t 5.039196421 -s 1 -d 1 -p tcp -e 1060 -c 2 -a 0 -i 10 -k AGT
+ -t 5.039196421 -s 1 -d -1 -p ack -e 40 -c 2 -a 0 -i 12 -k AGT 
- -t 5.039196421 -s 1 -d -1 -p ack -e 40 -c 2 -a 0 -i 12 -k AGT
h -t 5.039196421 -s 1 -d -1 -p ack -e 40 -c 2 -a 0 -i 12 -k AGT
+ -t 5.039196421 -s 1 -d 0 -p ack -e 60 -c 2 -a 0 -i 12 -k RTR 
- -t 5.039196421 -s 1 -d 0 -p ack -e 60 -c 2 -a 0 -i 12 -k RTR
h -t 5.039196421 -s 1 -d 0 -p ack -e 60 -c 2 -a 0 -i 12 -k RTR
r -t 5.049361364 -s 1 -d 1 -p tcp -e 1060 -c 2 -a 0 -i 11 -k AGT
+ -t 5.049361364 -s 1 -d -1 -p ack -e 40 -c 2 -a 0 -i 13 -k AGT 
- -t 5.049361364 -s 1 -d -1 -p ack -e 40 -c 2 -a 0 -i 13 -k AGT
h -t 5.049361364 -s 1 -d -1 -p ack -e 40 -c 2 -a 0 -i 13 -k AGT
+ -t 5.049361364 -s 1 -d 0 -p ack -e 60 -c 2 -a 0 -i 13 -k RTR 
- -t 5.049361364 -s 1 -d 0 -p ack -e 60 -c 2 -a 0 -i 13 -k RTR
h -t 5.049361364 -s 1 -d 0 -p ack -e 60 -c 2 -a 0 -i 13 -k RTR
r -t 5.051546071 -s 0 -d 0 -p ack -e 60 -c 2 -a 0 -i 9 -k AGT
+ -t 5.051546071 -s 0 -d -1 -p tcp -e 1040 -c 2 -a 0 -i 14 -k AGT 
- -t 5.051546071 -s 0 -d -1 -p tcp -e 1040 -c 2 -a 0 -i 14 -k AGT
h -t 5.051546071 -s 0 -d -1 -p tcp -e 1040 -c 2 -a 0 -i 14 -k AGT
+ -t 5.051546071 -s 0 -d 1 -p tcp -e 1060 -c 2 -a 0 -i 14 -k RTR 
- -t 5.051546071 -s 0 -d 1 -p tcp -e 1060 -c 2 -a 0 -i 14 -k RTR
h -t 5.051546071 -s 0 -d 1 -p tcp -e 1060 -c 2 -a 0 -i 14 -k RTR
+ -t 5.051546071 -s 0 -d -1 -p tcp -e 1040 -c 2 -a 0 -i 15 -k AGT 
- -t 5.051546071 -s 0 -d -1 -p tcp -e 1040 -c 2 -a 0 -i 15 -k AGT
h -t 5.051546071 -s 0 -d -1 -p tcp -e 1040 -c 2 -a 0 -i 15 -k AGT
+ -t 5.051546071 -s 0 -d 1 -p tcp -e 1060 -c 2 -a 0 -i 15 -k RTR 
- -t 5.051546071 -s 0 -d 1 -p tcp -e 1060 -c 2 -a 0 -i 15 -k RTR
h -t 5.051546071 -s 0 -d 1 -p tcp -e 1060 -c 2 -a 0 -i 15 -k RTR
r -t 5.061910778 -s 1 -d 1 -p tcp -e 1060 -c 2 -a 0 -i 14 -k AGT
+ -t 5.061910778 -s 1 -d -1 -p ack -e 40 -c 2 -a 0 -i 16 -k AGT 
- -t 5.061910778 -s 1 -d -1 -p ack -e 40 -c 2 -a 0 -i 16 -k AGT
h -t 5.061910778 -s 1 -d -1 -p ack -e 40 -c 2 -a 0 -i 16 -k AGT
+ -t 5.061910778 -s 1 -d 0 -p ack -e 60 -c 2 -a 0 -i 16 -k RTR 
- -t 5.061910778 -s 1 -d 0 -p ack -e 60 -c 2 -a 0 -i 16 -k RTR
h -t 5.061910778 -s 1 -d 0 -p ack -e 60 -c 2 -a 0 -i 16 -k RTR
r -t 5.063935485 -s 0 -d 0 -p ack -e 60 -c 2 -a 0 -i 12 -k AGT
+ -t 5.063935485 -s 0 -d -1 -p tcp -e 1040 -c 2 -a 0 -i 17 -k AGT 
- -t 5.063935485 -s 0 -d -1 -p tcp -e 1040 -c 2 -a 0 -i 17 -k AGT
h -t 5.063935485 -s 0 -d -1 -p tcp -e 1040 -c 2 -a 0 -i 17 -k AGT
+ -t 5.063935485 -s 0 -d 1 -p tcp -e 1060 -c 2 -a 0 -i 17 -k RTR 
- -t 5.063935485 -s 0 -d 1 -p tcp -e 1060 -c 2 -a 0 -i 17 -k RTR
h -t 5.063935485 -s 0 -d 1 -p tcp -e 1060 -c 2 -a 0 -i 17 -k RTR
+ -t 5.063935485 -s 0 -d -1 -p tcp -e 1040 -c 2 -a 0 -i 18 -k AGT 
- -t 5.063935485 -s 0 -d -1 -p tcp -e 1040 -c 2 -a 0 -i 18 -k AGT
h -t 5.063935485 -s 0 -d -1 -p tcp -e 1040 -c 2 -a 0 -i 18 -k AGT
+ -t 5.063935485 -s 0 -d 1 -p tcp -e 1060 -c 2 -a 0 -i 18 -k RTR 
- -t 5.063935485 -s 0 -d 1 -p tcp -e 1060 -c 2 -a 0 -i 18 -k RTR
h -t 5.063935485 -s 0 -d 1 -p tcp -e 1060 -c 2 -a 0 -i 18 -k RTR
r -t 5.066280428 -s 0 -d 0 -p ack -e 60 -c 2 -a 0 -i 13 -k AGT
+ -t 5.066280428 -s 0 -d -1 -p tcp -e 1040 -c 2 -a 0 -i 19 -k AGT 
- -t 5.066280428 -s 0 -d -1 -p tcp -e 1040 -c 2 -a 0 -i 19 -k AGT
h -t 5.066280428 -s 0 -d -1 -p tcp -e 1040 -c 2 -a 0 -i 19 -k AGT
+ -t 5.066280428 -s 0 -d 1 -p tcp -e 1060 -c 2 -a 0 -i 19 -k RTR 
- -t 5.066280428 -s 0 -d 1 -p tcp -e 1060 -c 2 -a 0 -i 19 -k RTR
h -t 5.066280428 -s 0 -d 1 -p tcp -e 1060 -c 2 -a 0 -i 19 -k RTR
+ -t 5.066280428 -s 0 -d -1 -p tcp -e 1040 -c 2 -a 0 -i 20 -k AGT 
- -t 5.066280428 -s 0 -d -1 -p tcp -e 1040 -c 2 -a 0 -i 20 -k AGT
h -t 5.066280428 -s 0 -d -1 -p tcp -e 1040 -c 2 -a 0 -i 20 -k AGT
+ -t 5.066280428 -s 0 -d 1 -p tcp -e 1060 -c 2 -a 0 -i 20 -k RTR 
- -t 5.066280428 -s 0 -d 1 -p tcp -e 1060 -c 2 -a 0 -i 20 -k RTR
h -t 5.066280428 -s 0 -d 1 -p tcp -e 1060 -c 2 -a 0 -i 20 -k RTR
r -t 5.068305371 -s 0 -d 0 -p ack -e 60 -c 2 -a 0 -i 16 -k AGT
+ -t 5.068305371 -s 0 -d -1 -p tcp -e 1040 -c 2 -a 0 -i 21 -k AGT 
- -t 5.068305371 -s 0 -d -1 -p tcp -e 1040 -c 2 -a 0 -i 21 -k AGT
h -t 5.068305371 -s 0 -d -1 -p tcp -e 1040 -c 2 -a 0 -i 21 -k AGT
+ -t 5.068305371 -s 0 -d 1 -p tcp -e 1060 -c 2 -a 0 -i 21 -k RTR 
- -t 5.068305371 -s 0 -d 1 -p tcp -e 1060 -c 2 -a 0 -i 21 -k RTR
h -t 5.068305371 -s 0 -d 1 -p tcp -e 1060 -c 2 -a 0 -i 21 -k RTR
+ -t 5.068305371 -s 0 -d -1 -p tcp -e 1040 -c 2 -a 0 -i 22 -k AGT 
- -t 5.068305371 -s 0 -d -1 -p tcp -e 1040 -c 2 -a 0 -i 22 -k AGT
h -t 5.068305371 -s 0 -d -1 -p tcp -e 1040 -c 2 -a 0 -i 22 -k AGT
+ -t 5.068305371 -s 0 -d 1 -p tcp -e 1060 -c 2 -a 0 -i 22 -k RTR 
- -t 5.068305371 -s 0 -d 1 -p tcp -e 1060 -c 2 -a 0 -i 22 -k RTR
h -t 5.068305371 -s 0 -d 1 -p tcp -e 1060 -c 2 -a 0 -i 22 -k RTR
r -t 5.078390078 -s 1 -d 1 -p tcp -e 1060 -c 2 -a 0 -i 15 -k AGT
+ -t 5.078390078 -s 1 -d -1 -p ack -e 40 -c 2 -a 0 -i 23 -k AGT 
- -t 5.078390078 -s 1 -d -1 -p ack -e 40 -c 2 -a 0 -i 23 -k AGT
h -t 5.078390078 -s 1 -d -1 -p ack -e 40 -c 2 -a 0 -i 23 -k AGT
+ -t 5.078390078 -s 1 -d 0 -p ack -e 60 -c 2 -a 0 -i 23 -k RTR 
- -t 5.078390078 -s 1 -d 0 -p ack -e 60 -c 2 -a 0 -i 23 -k RTR
h -t 5.078390078 -s 1 -d 0 -p ack -e 60 -c 2 -a 0 -i 23 -k RTR
r -t 5.080594785 -s 0 -d 0 -p ack -e 60 -c 2 -a 0 -i 23 -k AGT
+ -t 5.080594785 -s 0 -d -1 -p tcp -e 1040 -c 2 -a 0 -i 24 -k AGT 
- -t 5.080594785 -s 0 -d -1 -p tcp -e 1040 -c 2 -a 0 -i 24 -k AGT
h -t 5.080594785 -s 0 -d -1 -p tcp -e 1040 -c 2 -a 0 -i 24 -k AGT
+ -t 5.080594785 -s 0 -d 1 -p tcp -e 1060 -c 2 -a 0 -i 24 -k RTR 
- -t 5.080594785 -s 0 -d 1 -p tcp -e 1060 -c 2 -a 0 -i 24 -k RTR
h -t 5.080594785 -s 0 -d 1 -p tcp -e 1060 -c 2 -a 0 -i 24 -k RTR
+ -t 5.080594785 -s 0 -d -1 -p tcp -e 1040 -c 2 -a 0 -i 25 -k AGT 
- -t 5.080594785 -s 0 -d -1 -p tcp -e 1040 -c 2 -a 0 -i 25 -k AGT
h -t 5.080594785 -s 0 -d -1 -p tcp -e 1040 -c 2 -a 0 -i 25 -k AGT
+ -t 5.080594785 -s 0 -d 1 -p tcp -e 1060 -c 2 -a 0 -i 25 -k RTR 
- -t 5.080594785 -s 0 -d 1 -p tcp -e 1060 -c 2 -a 0 -i 25 -k RTR
h -t 5.080594785 -s 0 -d 1 -p tcp -e 1060 -c 2 -a 0 -i 25 -k RTR
r -t 5.090719492 -s 1 -d 1 -p tcp -e 1060 -c 2 -a 0 -i 17 -k AGT
+ -t 5.090719492 -s 1 -d -1 -p ack -e 40 -c 2 -a 0 -i 26 -k AGT 
- -t 5.090719492 -s 1 -d -1 -p ack -e 40 -c 2 -a 0 -i 26 -k AGT
h -t 5.090719492 -s 1 -d -1 -p ack -e 40 -c 2 -a 0 -i 26 -k AGT
+ -t 5.090719492 -s 1 -d 0 -p ack -e 60 -c 2 -a 0 -i 26 -k RTR 
- -t 5.090719492 -s 1 -d 0 -p ack -e 60 -c 2 -a 0 -i 26 -k RTR
h -t 5.090719492 -s 1 -d 0 -p ack -e 60 -c 2 -a 0 -i 26 -k RTR
r -t 5.092784199 -s 0 -d 0 -p ack -e 60 -c 2 -a 0 -i 26 -k AGT
+ -t 5.092784199 -s 0 -d -1 -p tcp -e 1040 -c 2 -a 0 -i 27 -k AGT 
- -t 5.092784199 -s 0 -d -1 -p tcp -e 1040 -c 2 -a 0 -i 27 -k AGT
h -t 5.092784199 -s 0 -d -1 -p tcp -e 1040 -c 2 -a 0 -i 27 -k AGT
+ -t 5.092784199 -s 0 -d 1 -p tcp -e 1060 -c 2 -a 0 -i 27 -k RTR 
- -t 5.092784199 -s 0 -d 1 -p tcp -e 1060 -c 2 -a 0 -i 27 -k RTR
h -t 5.092784199 -s 0 -d 1 -p tcp -e 1060 -c 2 -a 0 -i 27 -k RTR
+ -t 5.092784199 -s 0 -d -1 -p tcp -e 1040 -c 2 -a 0 -i 28 -k AGT 
- -t 5.092784199 -s 0 -d -1 -p tcp -e 1040 -c 2 -a 0 -i 28 -k AGT
h -t 5.092784199 -s 0 -d -1 -p tcp -e 1040 -c 2 -a 0 -i 28 -k AGT
+ -t 5.092784199 -s 0 -d 1 -p tcp -e 1060 -c 2 -a 0 -i 28 -k RTR 
- -t 5.092784199 -s 0 -d 1 -p tcp -e 1060 -c 2 -a 0 -i 28 -k RTR
h -t 5.092784199 -s 0 -d 1 -p tcp -e 1060 -c 2 -a 0 -i 28 -k RTR
r -t 5.102968906 -s 1 -d 1 -p tcp -e 1060 -c 2 -a 0 -i 18 -k AGT
+ -t 5.102968906 -s 1 -d -1 -p ack -e 40 -c 2 -a 0 -i 29 -k AGT 
- -t 5.102968906 -s 1 -d -1 -p ack -e 40 -c 2 -a 0 -i 29 -k AGT
h -t 5.102968906 -s 1 -d -1 -p ack -e 40 -c 2 -a 0 -i 29 -k AGT
+ -t 5.102968906 -s 1 -d 0 -p ack -e 60 -c 2 -a 0 -i 29 -k RTR 
- -t 5.102968906 -s 1 -d 0 -p ack -e 60 -c 2 -a 0 -i 29 -k RTR
h -t 5.102968906 -s 1 -d 0 -p ack -e 60 -c 2 -a 0 -i 29 -k RTR
r -t 5.105053614 -s 0 -d 0 -p ack -e 60 -c 2 -a 0 -i 29 -k AGT
+ -t 5.105053614 -s 0 -d -1 -p tcp -e 1040 -c 2 -a 0 -i 30 -k AGT 
- -t 5.105053614 -s 0 -d -1 -p tcp -e 1040 -c 2 -a 0 -i 30 -k AGT
h -t 5.105053614 -s 0 -d -1 -p tcp -e 1040 -c 2 -a 0 -i 30 -k AGT
+ -t 5.105053614 -s 0 -d 1 -p tcp -e 1060 -c 2 -a 0 -i 30 -k RTR 
- -t 5.105053614 -s 0 -d 1 -p tcp -e 1060 -c 2 -a 0 -i 30 -k RTR
h -t 5.105053614 -s 0 -d 1 -p tcp -e 1060 -c 2 -a 0 -i 30 -k RTR
+ -t 5.105053614 -s 0 -d -1 -p tcp -e 1040 -c 2 -a 0 -i 31 -k AGT 
- -t 5.105053614 -s 0 -d -1 -p tcp -e 1040 -c 2 -a 0 -i 31 -k AGT
h -t 5.105053614 -s 0 -d -1 -p tcp -e 1040 -c 2 -a 0 -i 31 -k AGT
+ -t 5.105053614 -s 0 -d 1 -p tcp -e 1060 -c 2 -a 0 -i 31 -k RTR 
- -t 5.105053614 -s 0 -d 1 -p tcp -e 1060 -c 2 -a 0 -i 31 -k RTR
h -t 5.105053614 -s 0 -d 1 -p tcp -e 1060 -c 2 -a 0 -i 31 -k RTR
r -t 5.115478321 -s 1 -d 1 -p tcp -e 1060 -c 2 -a 0 -i 19 -k AGT
+ -t 5.115478321 -s 1 -d -1 -p ack -e 40 -c 2 -a 0 -i 32 -k AGT 
- -t 5.115478321 -s 1 -d -1 -p ack -e 40 -c 2 -a 0 -i 32 -k AGT
h -t 5.115478321 -s 1 -d -1 -p ack -e 40 -c 2 -a 0 -i 32 -k AGT
+ -t 5.115478321 -s 1 -d 0 -p ack -e 60 -c 2 -a 0 -i 32 -k RTR 
- -t 5.115478321 -s 1 -d 0 -p ack -e 60 -c 2 -a 0 -i 32 -k RTR
h -t 5.115478321 -s 1 -d 0 -p ack -e 60 -c 2 -a 0 -i 32 -k RTR
r -t 5.117663028 -s 0 -d 0 -p ack -e 60 -c 2 -a 0 -i 32 -k AGT
+ -t 5.117663028 -s 0 -d -1 -p tcp -e 1040 -c 2 -a 0 -i 33 -k AGT 
- -t 5.117663028 -s 0 -d -1 -p tcp -e 1040 -c 2 -a 0 -i 33 -k AGT
h -t 5.117663028 -s 0 -d -1 -p tcp -e 1040 -c 2 -a 0 -i 33 -k AGT
+ -t 5.117663028 -s 0 -d 1 -p tcp -e 1060 -c 2 -a 0 -i 33 -k RTR 
- -t 5.117663028 -s 0 -d 1 -p tcp -e 1060 -c 2 -a 0 -i 33 -k RTR
h -t 5.117663028 -s 0 -d 1 -p tcp -e 1060 -c 2 -a 0 -i 33 -k RTR
+ -t 5.117663028 -s 0 -d -1 -p tcp -e 1040 -c 2 -a 0 -i 34 -k AGT 
- -t 5.117663028 -s 0 -d -1 -p tcp -e 1040 -c 2 -a 0 -i 34 -k AGT
h -t 5.117663028 -s 0 -d -1 -p tcp -e 1040 -c 2 -a 0 -i 34 -k AGT
+ -t 5.117663028 -s 0 -d 1 -p tcp -e 1060 -c 2 -a 0 -i 34 -k RTR 
- -t 5.117663028 -s 0 -d 1 -p tcp -e 1060 -c 2 -a 0 -i 34 -k RTR
h -t 5.117663028 -s 0 -d 1 -p tcp -e 1060 -c 2 -a 0 -i 34 -k RTR
r -t 5.128027735 -s 1 -d 1 -p tcp -e 1060 -c 2 -a 0 -i 20 -k AGT
+ -t 5.128027735 -s 1 -d -1 -p ack -e 40 -c 2 -a 0 -i 35 -k AGT 
- -t 5.128027735 -s 1 -d -1 -p ack -e 40 -c 2 -a 0 -i 35 -k AGT
h -t 5.128027735 -s 1 -d -1 -p ack -e 40 -c 2 -a 0 -i 35 -k AGT
+ -t 5.128027735 -s 1 -d 0 -p ack -e 60 -c 2 -a 0 -i 35 -k RTR 
- -t 5.128027735 -s 1 -d 0 -p ack -e 60 -c 2 -a 0 -i 35 -k RTR
h -t 5.128027735 -s 1 -d 0 -p ack -e 60 -c 2 -a 0 -i 35 -k RTR
r -t 5.130132442 -s 0 -d 0 -p ack -e 60 -c 2 -a 0 -i 35 -k AGT
+ -t 5.130132442 -s 0 -d -1 -p tcp -e 1040 -c 2 -a 0 -i 36 -k AGT 
- -t 5.130132442 -s 0 -d -1 -p tcp -e 1040 -c 2 -a 0 -i 36 -k AGT
h -t 5.130132442 -s 0 -d -1 -p tcp -e 1040 -c 2 -a 0 -i 36 -k AGT
+ -t 5.130132442 -s 0 -d 1 -p tcp -e 1060 -c 2 -a 0 -i 36 -k RTR 
- -t 5.130132442 -s 0 -d 1 -p tcp -e 1060 -c 2 -a 0 -i 36 -k RTR
h -t 5.130132442 -s 0 -d 1 -p tcp -e 1060 -c 2 -a 0 -i 36 -k RTR
+ -t 5.130132442 -s 0 -d -1 -p tcp -e 1040 -c 2 -a 0 -i 37 -k AGT 
- -t 5.130132442 -s 0 -d -1 -p tcp -e 1040 -c 2 -a 0 -i 37 -k AGT
h -t 5.130132442 -s 0 -d -1 -p tcp -e 1040 -c 2 -a 0 -i 37 -k AGT
+ -t 5.130132442 -s 0 -d 1 -p tcp -e 1060 -c 2 -a 0 -i 37 -k RTR 
- -t 5.130132442 -s 0 -d 1 -p tcp -e 1060 -c 2 -a 0 -i 37 -k RTR
h -t 5.130132442 -s 0 -d 1 -p tcp -e 1060 -c 2 -a 0 -i 37 -k RTR
r -t 5.140357149 -s 1 -d 1 -p tcp -e 1060 -c 2 -a 0 -i 21 -k AGT
+ -t 5.140357149 -s 1 -d -1 -p ack -e 40 -c 2 -a 0 -i 38 -k AGT 
- -t 5.140357149 -s 1 -d -1 -p ack -e 40 -c 2 -a 0 -i 38 -k AGT
h -t 5.140357149 -s 1 -d -1 -p ack -e 40 -c 2 -a 0 -i 38 -k AGT
+ -t 5.140357149 -s 1 -d 0 -p ack -e 60 -c 2 -a 0 -i 38 -k RTR 
- -t 5.140357149 -s 1 -d 0 -p ack -e 60 -c 2 -a 0 -i 38 -k RTR
h -t 5.140357149 -s 1 -d 0 -p ack -e 60 -c 2 -a 0 -i 38 -k RTR
r -t 5.151868092 -s 1 -d 1 -p tcp -e 1060 -c 2 -a 0 -i 22 -k AGT
+ -t 5.151868092 -s 1 -d -1 -p ack -e 40 -c 2 -a 0 -i 39 -k AGT 
- -t 5.151868092 -s 1 -d -1 -p ack -e 40 -c 2 -a 0 -i 39 -k AGT
h -t 5.151868092 -s 1 -d -1 -p ack -e 40 -c 2 -a 0 -i 39 -k AGT
+ -t 5.151868092 -s 1 -d 0 -p ack -e 60 -c 2 -a 0 -i 39 -k RTR 
- -t 5.151868092 -s 1 -d 0 -p ack -e 60 -c 2 -a 0 -i 39 -k RTR
h -t 5.151868092 -s 1 -d 0 -p ack -e 60 -c 2 -a 0 -i 39 -k RTR
r -t 5.154312799 -s 0 -d 0 -p ack -e 60 -c 2 -a 0 -i 38 -k AGT
+ -t 5.154312799 -s 0 -d -1 -p tcp -e 1040 -c 2 -a 0 -i 40 -k AGT 
- -t 5.154312799 -s 0 -d -1 -p tcp -e 1040 -c 2 -a 0 -i 40 -k AGT
h -t 5.154312799 -s 0 -d -1 -p tcp -e 1040 -c 2 -a 0 -i 40 -k AGT
+ -t 5.154312799 -s 0 -d 1 -p tcp -e 1060 -c 2 -a 0 -i 40 -k RTR 
- -t 5.154312799 -s 0 -d 1 -p tcp -e 1060 -c 2 -a 0 -i 40 -k RTR
h -t 5.154312799 -s 0 -d 1 -p tcp -e 1060 -c 2 -a 0 -i 40 -k RTR
+ -t 5.154312799 -s 0 -d -1 -p tcp -e 1040 -c 2 -a 0 -i 41 -k AGT 
- -t 5.154312799 -s 0 -d -1 -p tcp -e 1040 -c 2 -a 0 -i 41 -k AGT
h -t 5.154312799 -s 0 -d -1 -p tcp -e 1040 -c 2 -a 0 -i 41 -k AGT
+ -t 5.154312799 -s 0 -d 1 -p tcp -e 1060 -c 2 -a 0 -i 41 -k RTR 
- -t 5.154312799 -s 0 -d 1 -p tcp -e 1060 -c 2 -a 0 -i 41 -k RTR
h -t 5.154312799 -s 0 -d 1 -p tcp -e 1060 -c 2 -a 0 -i 41 -k RTR
r -t 5.156297742 -s 0 -d 0 -p ack -e 60 -c 2 -a 0 -i 39 -k AGT
+ -t 5.156297742 -s 0 -d -1 -p tcp -e 1040 -c 2 -a 0 -i 42 -k AGT 
- -t 5.156297742 -s 0 -d -1 -p tcp -e 1040 -c 2 -a 0 -i 42 -k AGT
h -t 5.156297742 -s 0 -d -1 -p tcp -e 1040 -c 2 -a 0 -i 42 -k AGT
+ -t 5.156297742 -s 0 -d 1 -p tcp -e 1060 -c 2 -a 0 -i 42 -k RTR 
- -t 5.156297742 -s 0 -d 1 -p tcp -e 1060 -c 2 -a 0 -i 42 -k RTR
h -t 5.156297742 -s 0 -d 1 -p tcp -e 1060 -c 2 -a 0 -i 42 -k RTR
+ -t 5.156297742 -s 0 -d -1 -p tcp -e 1040 -c 2 -a 0 -i 43 -k AGT 
- -t 5.156297742 -s 0 -d -1 -p tcp -e 1040 -c 2 -a 0 -i 43 -k AGT
h -t 5.156297742 -s 0 -d -1 -p tcp -e 1040 -c 2 -a 0 -i 43 -k AGT
+ -t 5.156297742 -s 0 -d 1 -p tcp -e 1060 -c 2 -a 0 -i 43 -k RTR 
- -t 5.156297742 -s 0 -d 1 -p tcp -e 1060 -c 2 -a 0 -i 43 -k RTR
h -t 5.156297742 -s 0 -d 1 -p tcp -e 1060 -c 2 -a 0 -i 43 -k RTR
r -t 5.166302449 -s 1 -d 1 -p tcp -e 1060 -c 2 -a 0 -i 24 -k AGT
+ -t 5.166302449 -s 1 -d -1 -p ack -e 40 -c 2 -a 0 -i 44 -k AGT 
- -t 5.166302449 -s 1 -d -1 -p ack -e 40 -c 2 -a 0 -i 44 -k AGT
h -t 5.166302449 -s 1 -d -1 -p ack -e 40 -c 2 -a 0 -i 44 -k AGT
+ -t 5.166302449 -s 1 -d 0 -p ack -e 60 -c 2 -a 0 -i 44 -k RTR 
- -t 5.166302449 -s 1 -d 0 -p ack -e 60 -c 2 -a 0 -i 44 -k RTR
h -t 5.166302449 -s 1 -d 0 -p ack -e 60 -c 2 -a 0 -i 44 -k RTR
r -t 5.168487156 -s 0 -d 0 -p ack -e 60 -c 2 -a 0 -i 44 -k AGT
+ -t 5.168487156 -s 0 -d -1 -p tcp -e 1040 -c 2 -a 0 -i 45 -k AGT 
- -t 5.168487156 -s 0 -d -1 -p tcp -e 1040 -c 2 -a 0 -i 45 -k AGT
h -t 5.168487156 -s 0 -d -1 -p tcp -e 1040 -c 2 -a 0 -i 45 -k AGT
+ -t 5.168487156 -s 0 -d 1 -p tcp -e 1060 -c 2 -a 0 -i 45 -k RTR 
- -t 5.168487156 -s 0 -d 1 -p tcp -e 1060 -c 2 -a 0 -i 45 -k RTR
h -t 5.168487156 -s 0 -d 1 -p tcp -e 1060 -c 2 -a 0 -i 45 -k RTR
+ -t 5.168487156 -s 0 -d -1 -p tcp -e 1040 -c 2 -a 0 -i 46 -k AGT 
- -t 5.168487156 -s 0 -d -1 -p tcp -e 1040 -c 2 -a 0 -i 46 -k AGT
h -t 5.168487156 -s 0 -d -1 -p tcp -e 1040 -c 2 -a 0 -i 46 -k AGT
+ -t 5.168487156 -s 0 -d 1 -p tcp -e 1060 -c 2 -a 0 -i 46 -k RTR 
- -t 5.168487156 -s 0 -d 1 -p tcp -e 1060 -c 2 -a 0 -i 46 -k RTR
h -t 5.168487156 -s 0 -d 1 -p tcp -e 1060 -c 2 -a 0 -i 46 -k RTR
r -t 5.178591863 -s 1 -d 1 -p tcp -e 1060 -c 2 -a 0 -i 25 -k AGT
+ -t 5.178591863 -s 1 -d -1 -p ack -e 40 -c 2 -a 0 -i 47 -k AGT 
- -t 5.178591863 -s 1 -d -1 -p ack -e 40 -c 2 -a 0 -i 47 -k AGT
h -t 5.178591863 -s 1 -d -1 -p ack -e 40 -c 2 -a 0 -i 47 -k AGT
+ -t 5.178591863 -s 1 -d 0 -p ack -e 60 -c 2 -a 0 -i 47 -k RTR 
- -t 5.178591863 -s 1 -d 0 -p ack -e 60 -c 2 -a 0 -i 47 -k RTR
h -t 5.178591863 -s 1 -d 0 -p ack -e 60 -c 2 -a 0 -i 47 -k RTR
r -t 5.180636570 -s 0 -d 0 -p ack -e 60 -c 2 -a 0 -i 47 -k AGT
+ -t 5.180636570 -s 0 -d -1 -p tcp -e 1040 -c 2 -a 0 -i 48 -k AGT 
- -t 5.180636570 -s 0 -d -1 -p tcp -e 1040 -c 2 -a 0 -i 48 -k AGT
h -t 5.180636570 -s 0 -d -1 -p tcp -e 1040 -c 2 -a 0 -i 48 -k AGT
+ -t 5.180636570 -s 0 -d 1 -p tcp -e 1060 -c 2 -a 0 -i 48 -k RTR 
- -t 5.180636570 -s 0 -d 1 -p tcp -e 1060 -c 2 -a 0 -i 48 -k RTR
h -t 5.180636570 -s 0 -d 1 -p tcp -e 1060 -c 2 -a 0 -i 48 -k RTR
+ -t 5.180636570 -s 0 -d -1 -p tcp -e 1040 -c 2 -a 0 -i 49 -k AGT 
- -t 5.180636570 -s 0 -d -1 -p tcp -e 1040 -c 2 -a 0 -i 49 -k AGT
h -t 5.180636570 -s 0 -d -1 -p tcp -e 1040 -c 2 -a 0 -i 49 -k AGT
+ -t 5.180636570 -s 0 -d 1 -p tcp -e 1060 -c 2 -a 0 -i 49 -k RTR 
- -t 5.180636570 -s 0 -d 1 -p tcp -e 1060 -c 2 -a 0 -i 49 -k RTR
h -t 5.180636570 -s 0 -d 1 -p tcp -e 1060 -c 2 -a 0 -i 49 -k RTR
r -t 5.190781277 -s 1 -d 1 -p tcp -e 1060 -c 2 -a 0 -i 27 -k AGT
+ -t 5.190781277 -s 1 -d -1 -p ack -e 40 -c 2 -a 0 -i 50 -k AGT 
- -t 5.190781277 -s 1 -d -1 -p ack -e 40 -c 2 -a 0 -i 50 -k AGT
h -t 5.190781277 -s 1 -d -1 -p ack -e 40 -c 2 -a 0 -i 50 -k AGT
+ -t 5.190781277 -s 1 -d 0 -p ack -e 60 -c 2 -a 0 -i 50 -k RTR 
- -t 5.190781277 -s 1 -d 0 -p ack -e 60 -c 2 -a 0 -i 50 -k RTR
h -t 5.190781277 -s 1 -d 0 -p ack -e 60 -c 2 -a 0 -i 50 -k RTR
r -t 5.200766220 -s 1 -d 1 -p tcp -e 1060 -c 2 -a 0 -i 28 -k AGT
+ -t 5.200766220 -s 1 -d -1 -p ack -e 40 -c 2 -a 0 -i 51 -k AGT 
- -t 5.200766220 -s 1 -d -1 -p ack -e 40 -c 2 -a 0 -i 51 -k AGT
h -t 5.200766220 -s 1 -d -1 -p ack -e 40 -c 2 -a 0 -i 51 -k AGT
+ -t 5.200766220 -s 1 -d 0 -p ack -e 60 -c 2 -a 0 -i 51 -k RTR 
- -t 5.200766220 -s 1 -d 0 -p ack -e 60 -c 2 -a 0 -i 51 -k RTR
h -t 5.200766220 -s 1 -d 0 -p ack -e 60 -c 2 -a 0 -i 51 -k RTR
r -t 5.210991163 -s 1 -d 1 -p tcp -e 1060 -c 2 -a 0 -i 30 -k AGT
+ -t 5.210991163 -s 1 -d -1 -p ack -e 40 -c 2 -a 0 -i 52 -k AGT 
- -t 5.210991163 -s 1 -d -1 -p ack -e 40 -c 2 -a 0 -i 52 -k AGT
h -t 5.210991163 -s 1 -d -1 -p ack -e 40 -c 2 -a 0 -i 52 -k AGT
+ -t 5.210991163 -s 1 -d 0 -p ack -e 60 -c 2 -a 0 -i 52 -k RTR 
- -t 5.210991163 -s 1 -d 0 -p ack -e 60 -c 2 -a 0 -i 52 -k RTR
h -t 5.210991163 -s 1 -d 0 -p ack -e 60 -c 2 -a 0 -i 52 -k RTR
r -t 5.213035870 -s 0 -d 0 -p ack -e 60 -c 2 -a 0 -i 50 -k AGT
+ -t 5.213035870 -s 0 -d -1 -p tcp -e 1040 -c 2 -a 0 -i 53 -k AGT 
- -t 5.213035870 -s 0 -d -1 -p tcp -e 1040 -c 2 -a 0 -i 53 -k AGT
h -t 5.213035870 -s 0 -d -1 -p tcp -e 1040 -c 2 -a 0 -i 53 -k AGT
+ -t 5.213035870 -s 0 -d 1 -p tcp -e 1060 -c 2 -a 0 -i 53 -k RTR 
- -t 5.213035870 -s 0 -d 1 -p tcp -e 1060 -c 2 -a 0 -i 53 -k RTR
h -t 5.213035870 -s 0 -d 1 -p tcp -e 1060 -c 2 -a 0 -i 53 -k RTR
+ -t 5.213035870 -s 0 -d -1 -p tcp -e 1040 -c 2 -a 0 -i 54 -k AGT 
- -t 5.213035870 -s 0 -d -1 -p tcp -e 1040 -c 2 -a 0 -i 54 -k AGT
h -t 5.213035870 -s 0 -d -1 -p tcp -e 1040 -c 2 -a 0 -i 54 -k AGT
+ -t 5.213035870 -s 0 -d 1 -p tcp -e 1060 -c 2 -a 0 -i 54 -k RTR 
- -t 5.213035870 -s 0 -d 1 -p tcp -e 1060 -c 2 -a 0 -i 54 -k RTR
h -t 5.213035870 -s 0 -d 1 -p tcp -e 1060 -c 2 -a 0 -i 54 -k RTR
r -t 5.223260577 -s 1 -d 1 -p tcp -e 1060 -c 2 -a 0 -i 31 -k AGT
+ -t 5.223260577 -s 1 -d -1 -p ack -e 40 -c 2 -a 0 -i 55 -k AGT 
- -t 5.223260577 -s 1 -d -1 -p ack -e 40 -c 2 -a 0 -i 55 -k AGT
h -t 5.223260577 -s 1 -d -1 -p ack -e 40 -c 2 -a 0 -i 55 -k AGT
+ -t 5.223260577 -s 1 -d 0 -p ack -e 60 -c 2 -a 0 -i 55 -k RTR 
- -t 5.223260577 -s 1 -d 0 -p ack -e 60 -c 2 -a 0 -i 55 -k RTR
h -t 5.223260577 -s 1 -d 0 -p ack -e 60 -c 2 -a 0 -i 55 -k RTR
r -t 5.233265520 -s 1 -d 1 -p tcp -e 1060 -c 2 -a 0 -i 33 -k AGT
+ -t 5.233265520 -s 1 -d -1 -p ack -e 40 -c 2 -a 0 -i 56 -k AGT 
- -t 5.233265520 -s 1 -d -1 -p ack -e 40 -c 2 -a 0 -i 56 -k AGT
h -t 5.233265520 -s 1 -d -1 -p ack -e 40 -c 2 -a 0 -i 56 -k AGT
+ -t 5.233265520 -s 1 -d 0 -p ack -e 60 -c 2 -a 0 -i 56 -k RTR 
- -t 5.233265520 -s 1 -d 0 -p ack -e 60 -c 2 -a 0 -i 56 -k RTR
h -t 5.233265520 -s 1 -d 0 -p ack -e 60 -c 2 -a 0 -i 56 -k RTR
r -t 5.235290227 -s 0 -d 0 -p ack -e 60 -c 2 -a 0 -i 51 -k AGT
+ -t 5.235290227 -s 0 -d -1 -p tcp -e 1040 -c 2 -a 0 -i 57 -k AGT 
- -t 5.235290227 -s 0 -d -1 -p tcp -e 1040 -c 2 -a 0 -i 57 -k AGT
h -t 5.235290227 -s 0 -d -1 -p tcp -e 1040 -c 2 -a 0 -i 57 -k AGT
+ -t 5.235290227 -s 0 -d 1 -p tcp -e 1060 -c 2 -a 0 -i 57 -k RTR 
- -t 5.235290227 -s 0 -d 1 -p tcp -e 1060 -c 2 -a 0 -i 57 -k RTR
h -t 5.235290227 -s 0 -d 1 -p tcp -e 1060 -c 2 -a 0 -i 57 -k RTR
+ -t 5.235290227 -s 0 -d -1 -p tcp -e 1040 -c 2 -a 0 -i 58 -k AGT 
- -t 5.235290227 -s 0 -d -1 -p tcp -e 1040 -c 2 -a 0 -i 58 -k AGT
h -t 5.235290227 -s 0 -d -1 -p tcp -e 1040 -c 2 -a 0 -i 58 -k AGT
+ -t 5.235290227 -s 0 -d 1 -p tcp -e 1060 -c 2 -a 0 -i 58 -k RTR 
- -t 5.235290227 -s 0 -d 1 -p tcp -e 1060 -c 2 -a 0 -i 58 -k RTR
h -t 5.235290227 -s 0 -d 1 -p tcp -e 1060 -c 2 -a 0 -i 58 -k RTR
r -t 5.237515170 -s 0 -d 0 -p ack -e 60 -c 2 -a 0 -i 52 -k AGT
+ -t 5.237515170 -s 0 -d -1 -p tcp -e 1040 -c 2 -a 0 -i 59 -k AGT 
- -t 5.237515170 -s 0 -d -1 -p tcp -e 1040 -c 2 -a 0 -i 59 -k AGT
h -t 5.237515170 -s 0 -d -1 -p tcp -e 1040 -c 2 -a 0 -i 59 -k AGT
+ -t 5.237515170 -s 0 -d 1 -p tcp -e 1060 -c 2 -a 0 -i 59 -k RTR 
- -t 5.237515170 -s 0 -d 1 -p tcp -e 1060 -c 2 -a 0 -i 59 -k RTR
h -t 5.237515170 -s 0 -d 1 -p tcp -e 1060 -c 2 -a 0 -i 59 -k RTR
+ -t 5.237515170 -s 0 -d -1 -p tcp -e 1040 -c 2 -a 0 -i 60 -k AGT 
- -t 5.237515170 -s 0 -d -1 -p tcp -e 1040 -c 2 -a 0 -i 60 -k AGT
h -t 5.237515170 -s 0 -d -1 -p tcp -e 1040 -c 2 -a 0 -i 60 -k AGT
+ -t 5.237515170 -s 0 -d 1 -p tcp -e 1060 -c 2 -a 0 -i 60 -k RTR 
- -t 5.237515170 -s 0 -d 1 -p tcp -e 1060 -c 2 -a 0 -i 60 -k RTR
h -t 5.237515170 -s 0 -d 1 -p tcp -e 1060 -c 2 -a 0 -i 60 -k RTR
r -t 5.239620113 -s 0 -d 0 -p ack -e 60 -c 2 -a 0 -i 55 -k AGT
+ -t 5.239620113 -s 0 -d -1 -p tcp -e 1040 -c 2 -a 0 -i 61 -k AGT 
- -t 5.239620113 -s 0 -d -1 -p tcp -e 1040 -c 2 -a 0 -i 61 -k AGT
h -t 5.239620113 -s 0 -d -1 -p tcp -e 1040 -c 2 -a 0 -i 61 -k AGT
+ -t 5.239620113 -s 0 -d 1 -p tcp -e 1060 -c 2 -a 0 -i 61 -k RTR 
- -t 5.239620113 -s 0 -d 1 -p tcp -e 1060 -c 2 -a 0 -i 61 -k RTR
h -t 5.239620113 -s 0 -d 1 -p tcp -e 1060 -c 2 -a 0 -i 61 -k RTR
+ -t 5.239620113 -s 0 -d -1 -p tcp -e 1040 -c 2 -a 0 -i 62 -k AGT 
- -t 5.239620113 -s 0 -d -1 -p tcp -e 1040 -c 2 -a 0 -i 62 -k AGT
h -t 5.239620113 -s 0 -d -1 -p tcp -e 1040 -c 2 -a 0 -i 62 -k AGT
+ -t 5.239620113 -s 0 -d 1 -p tcp -e 1060 -c 2 -a 0 -i 62 -k RTR 
- -t 5.239620113 -s 0 -d 1 -p tcp -e 1060 -c 2 -a 0 -i 62 -k RTR
h -t 5.239620113 -s 0 -d 1 -p tcp -e 1060 -c 2 -a 0 -i 62 -k RTR
r -t 5.249684820 -s 1 -d 1 -p tcp -e 1060 -c 2 -a 0 -i 34 -k AGT
+ -t 5.249684820 -s 1 -d -1 -p ack -e 40 -c 2 -a 0 -i 63 -k AGT 
- -t 5.249684820 -s 1 -d -1 -p ack -e 40 -c 2 -a 0 -i 63 -k AGT
h -t 5.249684820 -s 1 -d -1 -p ack -e 40 -c 2 -a 0 -i 63 -k AGT
+ -t 5.249684820 -s 1 -d 0 -p ack -e 60 -c 2 -a 0 -i 63 -k RTR 
- -t 5.249684820 -s 1 -d 0 -p ack -e 60 -c 2 -a 0 -i 63 -k RTR
h -t 5.249684820 -s 1 -d 0 -p ack -e 60 -c 2 -a 0 -i 63 -k RTR
r -t 5.259709763 -s 1 -d 1 -p tcp -e 1060 -c 2 -a 0 -i 36 -k AGT
+ -t 5.259709763 -s 1 -d -1 -p ack -e 40 -c 2 -a 0 -i 64 -k AGT 
- -t 5.259709763 -s 1 -d -1 -p ack -e 40 -c 2 -a 0 -i 64 -k AGT
h -t 5.259709763 -s 1 -d -1 -p ack -e 40 -c 2 -a 0 -i 64 -k AGT
+ -t 5.259709763 -s 1 -d 0 -p ack -e 60 -c 2 -a 0 -i 64 -k RTR 
- -t 5.259709763 -s 1 -d 0 -p ack -e 60 -c 2 -a 0 -i 64 -k RTR
h -t 5.259709763 -s 1 -d 0 -p ack -e 60 -c 2 -a 0 -i 64 -k RTR
r -t 5.261874470 -s 0 -d 0 -p ack -e 60 -c 2 -a 0 -i 56 -k AGT
+ -t 5.261874470 -s 0 -d -1 -p tcp -e 1040 -c 2 -a 0 -i 65 -k AGT 
- -t 5.261874470 -s 0 -d -1 -p tcp -e 1040 -c 2 -a 0 -i 65 -k AGT
h -t 5.261874470 -s 0 -d -1 -p tcp -e 1040 -c 2 -a 0 -i 65 -k AGT
+ -t 5.261874470 -s 0 -d 1 -p tcp -e 1060 -c 2 -a 0 -i 65 -k RTR 
- -t 5.261874470 -s 0 -d 1 -p tcp -e 1060 -c 2 -a 0 -i 65 -k RTR
h -t 5.261874470 -s 0 -d 1 -p tcp -e 1060 -c 2 -a 0 -i 65 -k RTR
r -t 5.263979413 -s 0 -d 0 -p ack -e 60 -c 2 -a 0 -i 63 -k AGT
+ -t 5.263979413 -s 0 -d -1 -p tcp -e 1040 -c 2 -a 0 -i 66 -k AGT 
- -t 5.263979413 -s 0 -d -1 -p tcp -e 1040 -c 2 -a 0 -i 66 -k AGT
h -t 5.263979413 -s 0 -d -1 -p tcp -e 1040 -c 2 -a 0 -i 66 -k AGT
+ -t 5.263979413 -s 0 -d 1 -p tcp -e 1060 -c 2 -a 0 -i 66 -k RTR 
- -t 5.263979413 -s 0 -d 1 -p tcp -e 1060 -c 2 -a 0 -i 66 -k RTR
h -t 5.263979413 -s 0 -d 1 -p tcp -e 1060 -c 2 -a 0 -i 66 -k RTR
r -t 5.274124120 -s 1 -d 1 -p tcp -e 1060 -c 2 -a 0 -i 37 -k AGT
+ -t 5.274124120 -s 1 -d -1 -p ack -e 40 -c 2 -a 0 -i 67 -k AGT 
- -t 5.274124120 -s 1 -d -1 -p ack -e 40 -c 2 -a 0 -i 67 -k AGT
h -t 5.274124120 -s 1 -d -1 -p ack -e 40 -c 2 -a 0 -i 67 -k AGT
+ -t 5.274124120 -s 1 -d 0 -p ack -e 60 -c 2 -a 0 -i 67 -k RTR 
- -t 5.274124120 -s 1 -d 0 -p ack -e 60 -c 2 -a 0 -i 67 -k RTR
h -t 5.274124120 -s 1 -d 0 -p ack -e 60 -c 2 -a 0 -i 67 -k RTR
r -t 5.276148827 -s 0 -d 0 -p ack -e 60 -c 2 -a 0 -i 64 -k AGT
+ -t 5.276148827 -s 0 -d -1 -p tcp -e 1040 -c 2 -a 0 -i 68 -k AGT 
- -t 5.276148827 -s 0 -d -1 -p tcp -e 1040 -c 2 -a 0 -i 68 -k AGT
h -t 5.276148827 -s 0 -d -1 -p tcp -e 1040 -c 2 -a 0 -i 68 -k AGT
+ -t 5.276148827 -s 0 -d 1 -p tcp -e 1060 -c 2 -a 0 -i 68 -k RTR 
- -t 5.276148827 -s 0 -d 1 -p tcp -e 1060 -c 2 -a 0 -i 68 -k RTR
h -t 5.276148827 -s 0 -d 1 -p tcp -e 1060 -c 2 -a 0 -i 68 -k RTR
r -t 5.286193534 -s 1 -d 1 -p tcp -e 1060 -c 2 -a 0 -i 40 -k AGT
+ -t 5.286193534 -s 1 -d -1 -p ack -e 40 -c 2 -a 0 -i 69 -k AGT 
- -t 5.286193534 -s 1 -d -1 -p ack -e 40 -c 2 -a 0 -i 69 -k AGT
h -t 5.286193534 -s 1 -d -1 -p ack -e 40 -c 2 -a 0 -i 69 -k AGT
+ -t 5.286193534 -s 1 -d 0 -p ack -e 60 -c 2 -a 0 -i 69 -k RTR 
- -t 5.286193534 -s 1 -d 0 -p ack -e 60 -c 2 -a 0 -i 69 -k RTR
h -t 5.286193534 -s 1 -d 0 -p ack -e 60 -c 2 -a 0 -i 69 -k RTR